ITEM: TIMESTEP
0
ITEM: NUMBER OF ATOMS
1792
ITEM: BOX BOUNDS pp pp pp
-25.5 25.5
-25.5 25.5
-30 30
ITEM: ATOMS id type mol x y z mux muy muz 
1 1 1 -25.4 -25.5 26.5 0 0 -1.041 
2 3 1 -25.5 -25.4 22.5 0 0 0 
3 3 1 -25.4 -25.5 18.5 0 0 0 
4 3 1 -25.5 -25.4 14.5 0 0 0 
5 3 1 -25.4 -25.5 10.5 0 0 0 
6 3 1 -25.5 -25.4 6.5 0 0 0 
7 3 1 -25.4 -25.5 2.5 0 0 0 
8 3 1 -25.5 -25.4 -1.5 0 0 0 
9 2 1 -22.7 -22.68 26.5 0 0 -0.416 
10 3 1 -22.68 -22.7 22.5 0 0 0 
11 3 1 -22.7 -22.68 18.5 0 0 0 
12 3 1 -22.68 -22.7 14.5 0 0 0 
13 3 1 -22.7 -22.68 10.5 0 0 0 
14 3 1 -22.68 -22.7 6.5 0 0 0 
15 1 2 -25.4 -19.125 26.5 0 0 -1.041 
16 3 2 -25.5 -19.025 22.5 0 0 0 
17 3 2 -25.4 -19.125 18.5 0 0 0 
18 3 2 -25.5 -19.025 14.5 0 0 0 
19 3 2 -25.4 -19.125 10.5 0 0 0 
20 3 2 -25.5 -19.025 6.5 0 0 0 
21 3 2 -25.4 -19.125 2.5 0 0 0 
22 3 2 -25.5 -19.025 -1.5 0 0 0 
23 2 2 -22.7 -16.305 26.5 0 0 -0.416 
24 3 2 -22.68 -16.325 22.5 0 0 0 
25 3 2 -22.7 -16.305 18.5 0 0 0 
26 3 2 -22.68 -16.325 14.5 0 0 0 
27 3 2 -22.7 -16.305 10.5 0 0 0 
28 3 2 -22.68 -16.325 6.5 0 0 0 
29 1 3 -25.4 -12.75 26.5 0 0 -1.041 
30 3 3 -25.5 -12.65 22.5 0 0 0 
31 3 3 -25.4 -12.75 18.5 0 0 0 
32 3 3 -25.5 -12.65 14.5 0 0 0 
33 3 3 -25.4 -12.75 10.5 0 0 0 
34 3 3 -25.5 -12.65 6.5 0 0 0 
35 3 3 -25.4 -12.75 2.5 0 0 0 
36 3 3 -25.5 -12.65 -1.5 0 0 0 
37 2 3 -22.7 -9.93 26.5 0 0 -0.416 
38 3 3 -22.68 -9.95 22.5 0 0 0 
39 3 3 -22.7 -9.93 18.5 0 0 0 
40 3 3 -22.68 -9.95 14.5 0 0 0 
41 3 3 -22.7 -9.93 10.5 0 0 0 
42 3 3 -22.68 -9.95 6.5 0 0 0 
43 1 4 -25.4 -6.375 26.5 0 0 -1.041 
44 3 4 -25.5 -6.275 22.5 0 0 0 
45 3 4 -25.4 -6.375 18.5 0 0 0 
46 3 4 -25.5 -6.275 14.5 0 0 0 
47 3 4 -25.4 -6.375 10.5 0 0 0 
48 3 4 -25.5 -6.275 6.5 0 0 0 
49 3 4 -25.4 -6.375 2.5 0 0 0 
50 3 4 -25.5 -6.275 -1.5 0 0 0 
51 2 4 -22.7 -3.555 26.5 0 0 -0.416 
52 3 4 -22.68 -3.575 22.5 0 0 0 
53 3 4 -22.7 -3.555 18.5 0 0 0 
54 3 4 -22.68 -3.575 14.5 0 0 0 
55 3 4 -22.7 -3.555 10.5 0 0 0 
56 3 4 -22.68 -3.575 6.5 0 0 0 
57 1 5 -25.4 0 26.5 0 0 -1.041 
58 3 5 -25.5 0.1 22.5 0 0 0 
59 3 5 -25.4 0 18.5 0 0 0 
60 3 5 -25.5 0.1 14.5 0 0 0 
61 3 5 -25.4 0 10.5 0 0 0 
62 3 5 -25.5 0.1 6.5 0 0 0 
63 3 5 -25.4 0 2.5 0 0 0 
64 3 5 -25.5 0.1 -1.5 0 0 0 
65 2 5 -22.7 2.82 26.5 0 0 -0.416 
66 3 5 -22.68 2.8 22.5 0 0 0 
67 3 5 -22.7 2.82 18.5 0 0 0 
68 3 5 -22.68 2.8 14.5 0 0 0 
69 3 5 -22.7 2.82 10.5 0 0 0 
70 3 5 -22.68 2.8 6.5 0 0 0 
71 1 6 -25.4 6.375 26.5 0 0 -1.041 
72 3 6 -25.5 6.475 22.5 0 0 0 
73 3 6 -25.4 6.375 18.5 0 0 0 
74 3 6 -25.5 6.475 14.5 0 0 0 
75 3 6 -25.4 6.375 10.5 0 0 0 
76 3 6 -25.5 6.475 6.5 0 0 0 
77 3 6 -25.4 6.375 2.5 0 0 0 
78 3 6 -25.5 6.475 -1.5 0 0 0 
79 2 6 -22.7 9.195 26.5 0 0 -0.416 
80 3 6 -22.68 9.175 22.5 0 0 0 
81 3 6 -22.7 9.195 18.5 0 0 0 
82 3 6 -22.68 9.175 14.5 0 0 0 
83 3 6 -22.7 9.195 10.5 0 0 0 
84 3 6 -22.68 9.175 6.5 0 0 0 
85 1 7 -25.4 12.75 26.5 0 0 -1.041 
86 3 7 -25.5 12.85 22.5 0 0 0 
87 3 7 -25.4 12.75 18.5 0 0 0 
88 3 7 -25.5 12.85 14.5 0 0 0 
89 3 7 -25.4 12.75 10.5 0 0 0 
90 3 7 -25.5 12.85 6.5 0 0 0 
91 3 7 -25.4 12.75 2.5 0 0 0 
92 3 7 -25.5 12.85 -1.5 0 0 0 
93 2 7 -22.7 15.57 26.5 0 0 -0.416 
94 3 7 -22.68 15.55 22.5 0 0 0 
95 3 7 -22.7 15.57 18.5 0 0 0 
96 3 7 -22.68 15.55 14.5 0 0 0 
97 3 7 -22.7 15.57 10.5 0 0 0 
98 3 7 -22.68 15.55 6.5 0 0 0 
99 1 8 -25.4 19.125 26.5 0 0 -1.041 
100 3 8 -25.5 19.225 22.5 0 0 0 
101 3 8 -25.4 19.125 18.5 0 0 0 
102 3 8 -25.5 19.225 14.5 0 0 0 
103 3 8 -25.4 19.125 10.5 0 0 0 
104 3 8 -25.5 19.225 6.5 0 0 0 
105 3 8 -25.4 19.125 2.5 0 0 0 
106 3 8 -25.5 19.225 -1.5 0 0 0 
107 2 8 -22.7 21.945 26.5 0 0 -0.416 
108 3 8 -22.68 21.925 22.5 0 0 0 
109 3 8 -22.7 21.945 18.5 0 0 0 
110 3 8 -22.68 21.925 14.5 0 0 0 
111 3 8 -22.7 21.945 10.5 0 0 0 
112 3 8 -22.68 21.925 6.5 0 0 0 
113 1 9 -19.025 -25.5 26.5 0 0 -1.041 
114 3 9 -19.125 -25.4 22.5 0 0 0 
115 3 9 -19.025 -25.5 18.5 0 0 0 
116 3 9 -19.125 -25.4 14.5 0 0 0 
117 3 9 -19.025 -25.5 10.5 0 0 0 
118 3 9 -19.125 -25.4 6.5 0 0 0 
119 3 9 -19.025 -25.5 2.5 0 0 0 
120 3 9 -19.125 -25.4 -1.5 0 0 0 
121 2 9 -16.325 -22.68 26.5 0 0 -0.416 
122 3 9 -16.305 -22.7 22.5 0 0 0 
123 3 9 -16.325 -22.68 18.5 0 0 0 
124 3 9 -16.305 -22.7 14.5 0 0 0 
125 3 9 -16.325 -22.68 10.5 0 0 0 
126 3 9 -16.305 -22.7 6.5 0 0 0 
127 1 10 -19.025 -19.125 26.5 0 0 -1.041 
128 3 10 -19.125 -19.025 22.5 0 0 0 
129 3 10 -19.025 -19.125 18.5 0 0 0 
130 3 10 -19.125 -19.025 14.5 0 0 0 
131 3 10 -19.025 -19.125 10.5 0 0 0 
132 3 10 -19.125 -19.025 6.5 0 0 0 
133 3 10 -19.025 -19.125 2.5 0 0 0 
134 3 10 -19.125 -19.025 -1.5 0 0 0 
135 2 10 -16.325 -16.305 26.5 0 0 -0.416 
136 3 10 -16.305 -16.325 22.5 0 0 0 
137 3 10 -16.325 -16.305 18.5 0 0 0 
138 3 10 -16.305 -16.325 14.5 0 0 0 
139 3 10 -16.325 -16.305 10.5 0 0 0 
140 3 10 -16.305 -16.325 6.5 0 0 0 
141 1 11 -19.025 -12.75 26.5 0 0 -1.041 
142 3 11 -19.125 -12.65 22.5 0 0 0 
143 3 11 -19.025 -12.75 18.5 0 0 0 
144 3 11 -19.125 -12.65 14.5 0 0 0 
145 3 11 -19.025 -12.75 10.5 0 0 0 
146 3 11 -19.125 -12.65 6.5 0 0 0 
147 3 11 -19.025 -12.75 2.5 0 0 0 
148 3 11 -19.125 -12.65 -1.5 0 0 0 
149 2 11 -16.325 -9.93 26.5 0 0 -0.416 
150 3 11 -16.305 -9.95 22.5 0 0 0 
151 3 11 -16.325 -9.93 18.5 0 0 0 
152 3 11 -16.305 -9.95 14.5 0 0 0 
153 3 11 -16.325 -9.93 10.5 0 0 0 
154 3 11 -16.305 -9.95 6.5 0 0 0 
155 1 12 -19.025 -6.375 26.5 0 0 -1.041 
156 3 12 -19.125 -6.275 22.5 0 0 0 
157 3 12 -19.025 -6.375 18.5 0 0 0 
158 3 12 -19.125 -6.275 14.5 0 0 0 
159 3 12 -19.025 -6.375 10.5 0 0 0 
160 3 12 -19.125 -6.275 6.5 0 0 0 
161 3 12 -19.025 -6.375 2.5 0 0 0 
162 3 12 -19.125 -6.275 -1.5 0 0 0 
163 2 12 -16.325 -3.555 26.5 0 0 -0.416 
164 3 12 -16.305 -3.575 22.5 0 0 0 
165 3 12 -16.325 -3.555 18.5 0 0 0 
166 3 12 -16.305 -3.575 14.5 0 0 0 
167 3 12 -16.325 -3.555 10.5 0 0 0 
168 3 12 -16.305 -3.575 6.5 0 0 0 
169 1 13 -19.025 0 26.5 0 0 -1.041 
170 3 13 -19.125 0.1 22.5 0 0 0 
171 3 13 -19.025 0 18.5 0 0 0 
172 3 13 -19.125 0.1 14.5 0 0 0 
173 3 13 -19.025 0 10.5 0 0 0 
174 3 13 -19.125 0.1 6.5 0 0 0 
175 3 13 -19.025 0 2.5 0 0 0 
176 3 13 -19.125 0.1 -1.5 0 0 0 
177 2 13 -16.325 2.82 26.5 0 0 -0.416 
178 3 13 -16.305 2.8 22.5 0 0 0 
179 3 13 -16.325 2.82 18.5 0 0 0 
180 3 13 -16.305 2.8 14.5 0 0 0 
181 3 13 -16.325 2.82 10.5 0 0 0 
182 3 13 -16.305 2.8 6.5 0 0 0 
183 1 14 -19.025 6.375 26.5 0 0 -1.041 
184 3 14 -19.125 6.475 22.5 0 0 0 
185 3 14 -19.025 6.375 18.5 0 0 0 
186 3 14 -19.125 6.475 14.5 0 0 0 
187 3 14 -19.025 6.375 10.5 0 0 0 
188 3 14 -19.125 6.475 6.5 0 0 0 
189 3 14 -19.025 6.375 2.5 0 0 0 
190 3 14 -19.125 6.475 -1.5 0 0 0 
191 2 14 -16.325 9.195 26.5 0 0 -0.416 
192 3 14 -16.305 9.175 22.5 0 0 0 
193 3 14 -16.325 9.195 18.5 0 0 0 
194 3 14 -16.305 9.175 14.5 0 0 0 
195 3 14 -16.325 9.195 10.5 0 0 0 
196 3 14 -16.305 9.175 6.5 0 0 0 
197 1 15 -19.025 12.75 26.5 0 0 -1.041 
198 3 15 -19.125 12.85 22.5 0 0 0 
199 3 15 -19.025 12.75 18.5 0 0 0 
200 3 15 -19.125 12.85 14.5 0 0 0 
201 3 15 -19.025 12.75 10.5 0 0 0 
202 3 15 -19.125 12.85 6.5 0 0 0 
203 3 15 -19.025 12.75 2.5 0 0 0 
204 3 15 -19.125 12.85 -1.5 0 0 0 
205 2 15 -16.325 15.57 26.5 0 0 -0.416 
206 3 15 -16.305 15.55 22.5 0 0 0 
207 3 15 -16.325 15.57 18.5 0 0 0 
208 3 15 -16.305 15.55 14.5 0 0 0 
209 3 15 -16.325 15.57 10.5 0 0 0 
210 3 15 -16.305 15.55 6.5 0 0 0 
211 1 16 -19.025 19.125 26.5 0 0 -1.041 
212 3 16 -19.125 19.225 22.5 0 0 0 
213 3 16 -19.025 19.125 18.5 0 0 0 
214 3 16 -19.125 19.225 14.5 0 0 0 
215 3 16 -19.025 19.125 10.5 0 0 0 
216 3 16 -19.125 19.225 6.5 0 0 0 
217 3 16 -19.025 19.125 2.5 0 0 0 
218 3 16 -19.125 19.225 -1.5 0 0 0 
219 2 16 -16.325 21.945 26.5 0 0 -0.416 
220 3 16 -16.305 21.925 22.5 0 0 0 
221 3 16 -16.325 21.945 18.5 0 0 0 
222 3 16 -16.305 21.925 14.5 0 0 0 
223 3 16 -16.325 21.945 10.5 0 0 0 
224 3 16 -16.305 21.925 6.5 0 0 0 
225 1 17 -12.65 -25.5 26.5 0 0 -1.041 
226 3 17 -12.75 -25.4 22.5 0 0 0 
227 3 17 -12.65 -25.5 18.5 0 0 0 
228 3 17 -12.75 -25.4 14.5 0 0 0 
229 3 17 -12.65 -25.5 10.5 0 0 0 
230 3 17 -12.75 -25.4 6.5 0 0 0 
231 3 17 -12.65 -25.5 2.5 0 0 0 
232 3 17 -12.75 -25.4 -1.5 0 0 0 
233 2 17 -9.95 -22.68 26.5 0 0 -0.416 
234 3 17 -9.93 -22.7 22.5 0 0 0 
235 3 17 -9.95 -22.68 18.5 0 0 0 
236 3 17 -9.93 -22.7 14.5 0 0 0 
237 3 17 -9.95 -22.68 10.5 0 0 0 
238 3 17 -9.93 -22.7 6.5 0 0 0 
239 1 18 -12.65 -19.125 26.5 0 0 -1.041 
240 3 18 -12.75 -19.025 22.5 0 0 0 
241 3 18 -12.65 -19.125 18.5 0 0 0 
242 3 18 -12.75 -19.025 14.5 0 0 0 
243 3 18 -12.65 -19.125 10.5 0 0 0 
244 3 18 -12.75 -19.025 6.5 0 0 0 
245 3 18 -12.65 -19.125 2.5 0 0 0 
246 3 18 -12.75 -19.025 -1.5 0 0 0 
247 2 18 -9.95 -16.305 26.5 0 0 -0.416 
248 3 18 -9.93 -16.325 22.5 0 0 0 
249 3 18 -9.95 -16.305 18.5 0 0 0 
250 3 18 -9.93 -16.325 14.5 0 0 0 
251 3 18 -9.95 -16.305 10.5 0 0 0 
252 3 18 -9.93 -16.325 6.5 0 0 0 
253 1 19 -12.65 -12.75 26.5 0 0 -1.041 
254 3 19 -12.75 -12.65 22.5 0 0 0 
255 3 19 -12.65 -12.75 18.5 0 0 0 
256 3 19 -12.75 -12.65 14.5 0 0 0 
257 3 19 -12.65 -12.75 10.5 0 0 0 
258 3 19 -12.75 -12.65 6.5 0 0 0 
259 3 19 -12.65 -12.75 2.5 0 0 0 
260 3 19 -12.75 -12.65 -1.5 0 0 0 
261 2 19 -9.95 -9.93 26.5 0 0 -0.416 
262 3 19 -9.93 -9.95 22.5 0 0 0 
263 3 19 -9.95 -9.93 18.5 0 0 0 
264 3 19 -9.93 -9.95 14.5 0 0 0 
265 3 19 -9.95 -9.93 10.5 0 0 0 
266 3 19 -9.93 -9.95 6.5 0 0 0 
267 1 20 -12.65 -6.375 26.5 0 0 -1.041 
268 3 20 -12.75 -6.275 22.5 0 0 0 
269 3 20 -12.65 -6.375 18.5 0 0 0 
270 3 20 -12.75 -6.275 14.5 0 0 0 
271 3 20 -12.65 -6.375 10.5 0 0 0 
272 3 20 -12.75 -6.275 6.5 0 0 0 
273 3 20 -12.65 -6.375 2.5 0 0 0 
274 3 20 -12.75 -6.275 -1.5 0 0 0 
275 2 20 -9.95 -3.555 26.5 0 0 -0.416 
276 3 20 -9.93 -3.575 22.5 0 0 0 
277 3 20 -9.95 -3.555 18.5 0 0 0 
278 3 20 -9.93 -3.575 14.5 0 0 0 
279 3 20 -9.95 -3.555 10.5 0 0 0 
280 3 20 -9.93 -3.575 6.5 0 0 0 
281 1 21 -12.65 0 26.5 0 0 -1.041 
282 3 21 -12.75 0.1 22.5 0 0 0 
283 3 21 -12.65 0 18.5 0 0 0 
284 3 21 -12.75 0.1 14.5 0 0 0 
285 3 21 -12.65 0 10.5 0 0 0 
286 3 21 -12.75 0.1 6.5 0 0 0 
287 3 21 -12.65 0 2.5 0 0 0 
288 3 21 -12.75 0.1 -1.5 0 0 0 
289 2 21 -9.95 2.82 26.5 0 0 -0.416 
290 3 21 -9.93 2.8 22.5 0 0 0 
291 3 21 -9.95 2.82 18.5 0 0 0 
292 3 21 -9.93 2.8 14.5 0 0 0 
293 3 21 -9.95 2.82 10.5 0 0 0 
294 3 21 -9.93 2.8 6.5 0 0 0 
295 1 22 -12.65 6.375 26.5 0 0 -1.041 
296 3 22 -12.75 6.475 22.5 0 0 0 
297 3 22 -12.65 6.375 18.5 0 0 0 
298 3 22 -12.75 6.475 14.5 0 0 0 
299 3 22 -12.65 6.375 10.5 0 0 0 
300 3 22 -12.75 6.475 6.5 0 0 0 
301 3 22 -12.65 6.375 2.5 0 0 0 
302 3 22 -12.75 6.475 -1.5 0 0 0 
303 2 22 -9.95 9.195 26.5 0 0 -0.416 
304 3 22 -9.93 9.175 22.5 0 0 0 
305 3 22 -9.95 9.195 18.5 0 0 0 
306 3 22 -9.93 9.175 14.5 0 0 0 
307 3 22 -9.95 9.195 10.5 0 0 0 
308 3 22 -9.93 9.175 6.5 0 0 0 
309 1 23 -12.65 12.75 26.5 0 0 -1.041 
310 3 23 -12.75 12.85 22.5 0 0 0 
311 3 23 -12.65 12.75 18.5 0 0 0 
312 3 23 -12.75 12.85 14.5 0 0 0 
313 3 23 -12.65 12.75 10.5 0 0 0 
314 3 23 -12.75 12.85 6.5 0 0 0 
315 3 23 -12.65 12.75 2.5 0 0 0 
316 3 23 -12.75 12.85 -1.5 0 0 0 
317 2 23 -9.95 15.57 26.5 0 0 -0.416 
318 3 23 -9.93 15.55 22.5 0 0 0 
319 3 23 -9.95 15.57 18.5 0 0 0 
320 3 23 -9.93 15.55 14.5 0 0 0 
321 3 23 -9.95 15.57 10.5 0 0 0 
322 3 23 -9.93 15.55 6.5 0 0 0 
323 1 24 -12.65 19.125 26.5 0 0 -1.041 
324 3 24 -12.75 19.225 22.5 0 0 0 
325 3 24 -12.65 19.125 18.5 0 0 0 
326 3 24 -12.75 19.225 14.5 0 0 0 
327 3 24 -12.65 19.125 10.5 0 0 0 
328 3 24 -12.75 19.225 6.5 0 0 0 
329 3 24 -12.65 19.125 2.5 0 0 0 
330 3 24 -12.75 19.225 -1.5 0 0 0 
331 2 24 -9.95 21.945 26.5 0 0 -0.416 
332 3 24 -9.93 21.925 22.5 0 0 0 
333 3 24 -9.95 21.945 18.5 0 0 0 
334 3 24 -9.93 21.925 14.5 0 0 0 
335 3 24 -9.95 21.945 10.5 0 0 0 
336 3 24 -9.93 21.925 6.5 0 0 0 
337 1 25 -6.275 -25.5 26.5 0 0 -1.041 
338 3 25 -6.375 -25.4 22.5 0 0 0 
339 3 25 -6.275 -25.5 18.5 0 0 0 
340 3 25 -6.375 -25.4 14.5 0 0 0 
341 3 25 -6.275 -25.5 10.5 0 0 0 
342 3 25 -6.375 -25.4 6.5 0 0 0 
343 3 25 -6.275 -25.5 2.5 0 0 0 
344 3 25 -6.375 -25.4 -1.5 0 0 0 
345 2 25 -3.575 -22.68 26.5 0 0 -0.416 
346 3 25 -3.555 -22.7 22.5 0 0 0 
347 3 25 -3.575 -22.68 18.5 0 0 0 
348 3 25 -3.555 -22.7 14.5 0 0 0 
349 3 25 -3.575 -22.68 10.5 0 0 0 
350 3 25 -3.555 -22.7 6.5 0 0 0 
351 1 26 -6.275 -19.125 26.5 0 0 -1.041 
352 3 26 -6.375 -19.025 22.5 0 0 0 
353 3 26 -6.275 -19.125 18.5 0 0 0 
354 3 26 -6.375 -19.025 14.5 0 0 0 
355 3 26 -6.275 -19.125 10.5 0 0 0 
356 3 26 -6.375 -19.025 6.5 0 0 0 
357 3 26 -6.275 -19.125 2.5 0 0 0 
358 3 26 -6.375 -19.025 -1.5 0 0 0 
359 2 26 -3.575 -16.305 26.5 0 0 -0.416 
360 3 26 -3.555 -16.325 22.5 0 0 0 
361 3 26 -3.575 -16.305 18.5 0 0 0 
362 3 26 -3.555 -16.325 14.5 0 0 0 
363 3 26 -3.575 -16.305 10.5 0 0 0 
364 3 26 -3.555 -16.325 6.5 0 0 0 
365 1 27 -6.275 -12.75 26.5 0 0 -1.041 
366 3 27 -6.375 -12.65 22.5 0 0 0 
367 3 27 -6.275 -12.75 18.5 0 0 0 
368 3 27 -6.375 -12.65 14.5 0 0 0 
369 3 27 -6.275 -12.75 10.5 0 0 0 
370 3 27 -6.375 -12.65 6.5 0 0 0 
371 3 27 -6.275 -12.75 2.5 0 0 0 
372 3 27 -6.375 -12.65 -1.5 0 0 0 
373 2 27 -3.575 -9.93 26.5 0 0 -0.416 
374 3 27 -3.555 -9.95 22.5 0 0 0 
375 3 27 -3.575 -9.93 18.5 0 0 0 
376 3 27 -3.555 -9.95 14.5 0 0 0 
377 3 27 -3.575 -9.93 10.5 0 0 0 
378 3 27 -3.555 -9.95 6.5 0 0 0 
379 1 28 -6.275 -6.375 26.5 0 0 -1.041 
380 3 28 -6.375 -6.275 22.5 0 0 0 
381 3 28 -6.275 -6.375 18.5 0 0 0 
382 3 28 -6.375 -6.275 14.5 0 0 0 
383 3 28 -6.275 -6.375 10.5 0 0 0 
384 3 28 -6.375 -6.275 6.5 0 0 0 
385 3 28 -6.275 -6.375 2.5 0 0 0 
386 3 28 -6.375 -6.275 -1.5 0 0 0 
387 2 28 -3.575 -3.555 26.5 0 0 -0.416 
388 3 28 -3.555 -3.575 22.5 0 0 0 
389 3 28 -3.575 -3.555 18.5 0 0 0 
390 3 28 -3.555 -3.575 14.5 0 0 0 
391 3 28 -3.575 -3.555 10.5 0 0 0 
392 3 28 -3.555 -3.575 6.5 0 0 0 
393 1 29 -6.275 0 26.5 0 0 -1.041 
394 3 29 -6.375 0.1 22.5 0 0 0 
395 3 29 -6.275 0 18.5 0 0 0 
396 3 29 -6.375 0.1 14.5 0 0 0 
397 3 29 -6.275 0 10.5 0 0 0 
398 3 29 -6.375 0.1 6.5 0 0 0 
399 3 29 -6.275 0 2.5 0 0 0 
400 3 29 -6.375 0.1 -1.5 0 0 0 
401 2 29 -3.575 2.82 26.5 0 0 -0.416 
402 3 29 -3.555 2.8 22.5 0 0 0 
403 3 29 -3.575 2.82 18.5 0 0 0 
404 3 29 -3.555 2.8 14.5 0 0 0 
405 3 29 -3.575 2.82 10.5 0 0 0 
406 3 29 -3.555 2.8 6.5 0 0 0 
407 1 30 -6.275 6.375 26.5 0 0 -1.041 
408 3 30 -6.375 6.475 22.5 0 0 0 
409 3 30 -6.275 6.375 18.5 0 0 0 
410 3 30 -6.375 6.475 14.5 0 0 0 
411 3 30 -6.275 6.375 10.5 0 0 0 
412 3 30 -6.375 6.475 6.5 0 0 0 
413 3 30 -6.275 6.375 2.5 0 0 0 
414 3 30 -6.375 6.475 -1.5 0 0 0 
415 2 30 -3.575 9.195 26.5 0 0 -0.416 
416 3 30 -3.555 9.175 22.5 0 0 0 
417 3 30 -3.575 9.195 18.5 0 0 0 
418 3 30 -3.555 9.175 14.5 0 0 0 
419 3 30 -3.575 9.195 10.5 0 0 0 
420 3 30 -3.555 9.175 6.5 0 0 0 
421 1 31 -6.275 12.75 26.5 0 0 -1.041 
422 3 31 -6.375 12.85 22.5 0 0 0 
423 3 31 -6.275 12.75 18.5 0 0 0 
424 3 31 -6.375 12.85 14.5 0 0 0 
425 3 31 -6.275 12.75 10.5 0 0 0 
426 3 31 -6.375 12.85 6.5 0 0 0 
427 3 31 -6.275 12.75 2.5 0 0 0 
428 3 31 -6.375 12.85 -1.5 0 0 0 
429 2 31 -3.575 15.57 26.5 0 0 -0.416 
430 3 31 -3.555 15.55 22.5 0 0 0 
431 3 31 -3.575 15.57 18.5 0 0 0 
432 3 31 -3.555 15.55 14.5 0 0 0 
433 3 31 -3.575 15.57 10.5 0 0 0 
434 3 31 -3.555 15.55 6.5 0 0 0 
435 1 32 -6.275 19.125 26.5 0 0 -1.041 
436 3 32 -6.375 19.225 22.5 0 0 0 
437 3 32 -6.275 19.125 18.5 0 0 0 
438 3 32 -6.375 19.225 14.5 0 0 0 
439 3 32 -6.275 19.125 10.5 0 0 0 
440 3 32 -6.375 19.225 6.5 0 0 0 
441 3 32 -6.275 19.125 2.5 0 0 0 
442 3 32 -6.375 19.225 -1.5 0 0 0 
443 2 32 -3.575 21.945 26.5 0 0 -0.416 
444 3 32 -3.555 21.925 22.5 0 0 0 
445 3 32 -3.575 21.945 18.5 0 0 0 
446 3 32 -3.555 21.925 14.5 0 0 0 
447 3 32 -3.575 21.945 10.5 0 0 0 
448 3 32 -3.555 21.925 6.5 0 0 0 
449 1 33 0.1 -25.5 26.5 0 0 -1.041 
450 3 33 0 -25.4 22.5 0 0 0 
451 3 33 0.1 -25.5 18.5 0 0 0 
452 3 33 0 -25.4 14.5 0 0 0 
453 3 33 0.1 -25.5 10.5 0 0 0 
454 3 33 0 -25.4 6.5 0 0 0 
455 3 33 0.1 -25.5 2.5 0 0 0 
456 3 33 0 -25.4 -1.5 0 0 0 
457 2 33 2.8 -22.68 26.5 0 0 -0.416 
458 3 33 2.82 -22.7 22.5 0 0 0 
459 3 33 2.8 -22.68 18.5 0 0 0 
460 3 33 2.82 -22.7 14.5 0 0 0 
461 3 33 2.8 -22.68 10.5 0 0 0 
462 3 33 2.82 -22.7 6.5 0 0 0 
463 1 34 0.1 -19.125 26.5 0 0 -1.041 
464 3 34 0 -19.025 22.5 0 0 0 
465 3 34 0.1 -19.125 18.5 0 0 0 
466 3 34 0 -19.025 14.5 0 0 0 
467 3 34 0.1 -19.125 10.5 0 0 0 
468 3 34 0 -19.025 6.5 0 0 0 
469 3 34 0.1 -19.125 2.5 0 0 0 
470 3 34 0 -19.025 -1.5 0 0 0 
471 2 34 2.8 -16.305 26.5 0 0 -0.416 
472 3 34 2.82 -16.325 22.5 0 0 0 
473 3 34 2.8 -16.305 18.5 0 0 0 
474 3 34 2.82 -16.325 14.5 0 0 0 
475 3 34 2.8 -16.305 10.5 0 0 0 
476 3 34 2.82 -16.325 6.5 0 0 0 
477 1 35 0.1 -12.75 26.5 0 0 -1.041 
478 3 35 0 -12.65 22.5 0 0 0 
479 3 35 0.1 -12.75 18.5 0 0 0 
480 3 35 0 -12.65 14.5 0 0 0 
481 3 35 0.1 -12.75 10.5 0 0 0 
482 3 35 0 -12.65 6.5 0 0 0 
483 3 35 0.1 -12.75 2.5 0 0 0 
484 3 35 0 -12.65 -1.5 0 0 0 
485 2 35 2.8 -9.93 26.5 0 0 -0.416 
486 3 35 2.82 -9.95 22.5 0 0 0 
487 3 35 2.8 -9.93 18.5 0 0 0 
488 3 35 2.82 -9.95 14.5 0 0 0 
489 3 35 2.8 -9.93 10.5 0 0 0 
490 3 35 2.82 -9.95 6.5 0 0 0 
491 1 36 0.1 -6.375 26.5 0 0 -1.041 
492 3 36 0 -6.275 22.5 0 0 0 
493 3 36 0.1 -6.375 18.5 0 0 0 
494 3 36 0 -6.275 14.5 0 0 0 
495 3 36 0.1 -6.375 10.5 0 0 0 
496 3 36 0 -6.275 6.5 0 0 0 
497 3 36 0.1 -6.375 2.5 0 0 0 
498 3 36 0 -6.275 -1.5 0 0 0 
499 2 36 2.8 -3.555 26.5 0 0 -0.416 
500 3 36 2.82 -3.575 22.5 0 0 0 
501 3 36 2.8 -3.555 18.5 0 0 0 
502 3 36 2.82 -3.575 14.5 0 0 0 
503 3 36 2.8 -3.555 10.5 0 0 0 
504 3 36 2.82 -3.575 6.5 0 0 0 
505 1 37 0.1 0 26.5 0 0 -1.041 
506 3 37 0 0.1 22.5 0 0 0 
507 3 37 0.1 0 18.5 0 0 0 
508 3 37 0 0.1 14.5 0 0 0 
509 3 37 0.1 0 10.5 0 0 0 
510 3 37 0 0.1 6.5 0 0 0 
511 3 37 0.1 0 2.5 0 0 0 
512 3 37 0 0.1 -1.5 0 0 0 
513 2 37 2.8 2.82 26.5 0 0 -0.416 
514 3 37 2.82 2.8 22.5 0 0 0 
515 3 37 2.8 2.82 18.5 0 0 0 
516 3 37 2.82 2.8 14.5 0 0 0 
517 3 37 2.8 2.82 10.5 0 0 0 
518 3 37 2.82 2.8 6.5 0 0 0 
519 1 38 0.1 6.375 26.5 0 0 -1.041 
520 3 38 0 6.475 22.5 0 0 0 
521 3 38 0.1 6.375 18.5 0 0 0 
522 3 38 0 6.475 14.5 0 0 0 
523 3 38 0.1 6.375 10.5 0 0 0 
524 3 38 0 6.475 6.5 0 0 0 
525 3 38 0.1 6.375 2.5 0 0 0 
526 3 38 0 6.475 -1.5 0 0 0 
527 2 38 2.8 9.195 26.5 0 0 -0.416 
528 3 38 2.82 9.175 22.5 0 0 0 
529 3 38 2.8 9.195 18.5 0 0 0 
530 3 38 2.82 9.175 14.5 0 0 0 
531 3 38 2.8 9.195 10.5 0 0 0 
532 3 38 2.82 9.175 6.5 0 0 0 
533 1 39 0.1 12.75 26.5 0 0 -1.041 
534 3 39 0 12.85 22.5 0 0 0 
535 3 39 0.1 12.75 18.5 0 0 0 
536 3 39 0 12.85 14.5 0 0 0 
537 3 39 0.1 12.75 10.5 0 0 0 
538 3 39 0 12.85 6.5 0 0 0 
539 3 39 0.1 12.75 2.5 0 0 0 
540 3 39 0 12.85 -1.5 0 0 0 
541 2 39 2.8 15.57 26.5 0 0 -0.416 
542 3 39 2.82 15.55 22.5 0 0 0 
543 3 39 2.8 15.57 18.5 0 0 0 
544 3 39 2.82 15.55 14.5 0 0 0 
545 3 39 2.8 15.57 10.5 0 0 0 
546 3 39 2.82 15.55 6.5 0 0 0 
547 1 40 0.1 19.125 26.5 0 0 -1.041 
548 3 40 0 19.225 22.5 0 0 0 
549 3 40 0.1 19.125 18.5 0 0 0 
550 3 40 0 19.225 14.5 0 0 0 
551 3 40 0.1 19.125 10.5 0 0 0 
552 3 40 0 19.225 6.5 0 0 0 
553 3 40 0.1 19.125 2.5 0 0 0 
554 3 40 0 19.225 -1.5 0 0 0 
555 2 40 2.8 21.945 26.5 0 0 -0.416 
556 3 40 2.82 21.925 22.5 0 0 0 
557 3 40 2.8 21.945 18.5 0 0 0 
558 3 40 2.82 21.925 14.5 0 0 0 
559 3 40 2.8 21.945 10.5 0 0 0 
560 3 40 2.82 21.925 6.5 0 0 0 
561 1 41 6.475 -25.5 26.5 0 0 -1.041 
562 3 41 6.375 -25.4 22.5 0 0 0 
563 3 41 6.475 -25.5 18.5 0 0 0 
564 3 41 6.375 -25.4 14.5 0 0 0 
565 3 41 6.475 -25.5 10.5 0 0 0 
566 3 41 6.375 -25.4 6.5 0 0 0 
567 3 41 6.475 -25.5 2.5 0 0 0 
568 3 41 6.375 -25.4 -1.5 0 0 0 
569 2 41 9.175 -22.68 26.5 0 0 -0.416 
570 3 41 9.195 -22.7 22.5 0 0 0 
571 3 41 9.175 -22.68 18.5 0 0 0 
572 3 41 9.195 -22.7 14.5 0 0 0 
573 3 41 9.175 -22.68 10.5 0 0 0 
574 3 41 9.195 -22.7 6.5 0 0 0 
575 1 42 6.475 -19.125 26.5 0 0 -1.041 
576 3 42 6.375 -19.025 22.5 0 0 0 
577 3 42 6.475 -19.125 18.5 0 0 0 
578 3 42 6.375 -19.025 14.5 0 0 0 
579 3 42 6.475 -19.125 10.5 0 0 0 
580 3 42 6.375 -19.025 6.5 0 0 0 
581 3 42 6.475 -19.125 2.5 0 0 0 
582 3 42 6.375 -19.025 -1.5 0 0 0 
583 2 42 9.175 -16.305 26.5 0 0 -0.416 
584 3 42 9.195 -16.325 22.5 0 0 0 
585 3 42 9.175 -16.305 18.5 0 0 0 
586 3 42 9.195 -16.325 14.5 0 0 0 
587 3 42 9.175 -16.305 10.5 0 0 0 
588 3 42 9.195 -16.325 6.5 0 0 0 
589 1 43 6.475 -12.75 26.5 0 0 -1.041 
590 3 43 6.375 -12.65 22.5 0 0 0 
591 3 43 6.475 -12.75 18.5 0 0 0 
592 3 43 6.375 -12.65 14.5 0 0 0 
593 3 43 6.475 -12.75 10.5 0 0 0 
594 3 43 6.375 -12.65 6.5 0 0 0 
595 3 43 6.475 -12.75 2.5 0 0 0 
596 3 43 6.375 -12.65 -1.5 0 0 0 
597 2 43 9.175 -9.93 26.5 0 0 -0.416 
598 3 43 9.195 -9.95 22.5 0 0 0 
599 3 43 9.175 -9.93 18.5 0 0 0 
600 3 43 9.195 -9.95 14.5 0 0 0 
601 3 43 9.175 -9.93 10.5 0 0 0 
602 3 43 9.195 -9.95 6.5 0 0 0 
603 1 44 6.475 -6.375 26.5 0 0 -1.041 
604 3 44 6.375 -6.275 22.5 0 0 0 
605 3 44 6.475 -6.375 18.5 0 0 0 
606 3 44 6.375 -6.275 14.5 0 0 0 
607 3 44 6.475 -6.375 10.5 0 0 0 
608 3 44 6.375 -6.275 6.5 0 0 0 
609 3 44 6.475 -6.375 2.5 0 0 0 
610 3 44 6.375 -6.275 -1.5 0 0 0 
611 2 44 9.175 -3.555 26.5 0 0 -0.416 
612 3 44 9.195 -3.575 22.5 0 0 0 
613 3 44 9.175 -3.555 18.5 0 0 0 
614 3 44 9.195 -3.575 14.5 0 0 0 
615 3 44 9.175 -3.555 10.5 0 0 0 
616 3 44 9.195 -3.575 6.5 0 0 0 
617 1 45 6.475 0 26.5 0 0 -1.041 
618 3 45 6.375 0.1 22.5 0 0 0 
619 3 45 6.475 0 18.5 0 0 0 
620 3 45 6.375 0.1 14.5 0 0 0 
621 3 45 6.475 0 10.5 0 0 0 
622 3 45 6.375 0.1 6.5 0 0 0 
623 3 45 6.475 0 2.5 0 0 0 
624 3 45 6.375 0.1 -1.5 0 0 0 
625 2 45 9.175 2.82 26.5 0 0 -0.416 
626 3 45 9.195 2.8 22.5 0 0 0 
627 3 45 9.175 2.82 18.5 0 0 0 
628 3 45 9.195 2.8 14.5 0 0 0 
629 3 45 9.175 2.82 10.5 0 0 0 
630 3 45 9.195 2.8 6.5 0 0 0 
631 1 46 6.475 6.375 26.5 0 0 -1.041 
632 3 46 6.375 6.475 22.5 0 0 0 
633 3 46 6.475 6.375 18.5 0 0 0 
634 3 46 6.375 6.475 14.5 0 0 0 
635 3 46 6.475 6.375 10.5 0 0 0 
636 3 46 6.375 6.475 6.5 0 0 0 
637 3 46 6.475 6.375 2.5 0 0 0 
638 3 46 6.375 6.475 -1.5 0 0 0 
639 2 46 9.175 9.195 26.5 0 0 -0.416 
640 3 46 9.195 9.175 22.5 0 0 0 
641 3 46 9.175 9.195 18.5 0 0 0 
642 3 46 9.195 9.175 14.5 0 0 0 
643 3 46 9.175 9.195 10.5 0 0 0 
644 3 46 9.195 9.175 6.5 0 0 0 
645 1 47 6.475 12.75 26.5 0 0 -1.041 
646 3 47 6.375 12.85 22.5 0 0 0 
647 3 47 6.475 12.75 18.5 0 0 0 
648 3 47 6.375 12.85 14.5 0 0 0 
649 3 47 6.475 12.75 10.5 0 0 0 
650 3 47 6.375 12.85 6.5 0 0 0 
651 3 47 6.475 12.75 2.5 0 0 0 
652 3 47 6.375 12.85 -1.5 0 0 0 
653 2 47 9.175 15.57 26.5 0 0 -0.416 
654 3 47 9.195 15.55 22.5 0 0 0 
655 3 47 9.175 15.57 18.5 0 0 0 
656 3 47 9.195 15.55 14.5 0 0 0 
657 3 47 9.175 15.57 10.5 0 0 0 
658 3 47 9.195 15.55 6.5 0 0 0 
659 1 48 6.475 19.125 26.5 0 0 -1.041 
660 3 48 6.375 19.225 22.5 0 0 0 
661 3 48 6.475 19.125 18.5 0 0 0 
662 3 48 6.375 19.225 14.5 0 0 0 
663 3 48 6.475 19.125 10.5 0 0 0 
664 3 48 6.375 19.225 6.5 0 0 0 
665 3 48 6.475 19.125 2.5 0 0 0 
666 3 48 6.375 19.225 -1.5 0 0 0 
667 2 48 9.175 21.945 26.5 0 0 -0.416 
668 3 48 9.195 21.925 22.5 0 0 0 
669 3 48 9.175 21.945 18.5 0 0 0 
670 3 48 9.195 21.925 14.5 0 0 0 
671 3 48 9.175 21.945 10.5 0 0 0 
672 3 48 9.195 21.925 6.5 0 0 0 
673 1 49 12.85 -25.5 26.5 0 0 -1.041 
674 3 49 12.75 -25.4 22.5 0 0 0 
675 3 49 12.85 -25.5 18.5 0 0 0 
676 3 49 12.75 -25.4 14.5 0 0 0 
677 3 49 12.85 -25.5 10.5 0 0 0 
678 3 49 12.75 -25.4 6.5 0 0 0 
679 3 49 12.85 -25.5 2.5 0 0 0 
680 3 49 12.75 -25.4 -1.5 0 0 0 
681 2 49 15.55 -22.68 26.5 0 0 -0.416 
682 3 49 15.57 -22.7 22.5 0 0 0 
683 3 49 15.55 -22.68 18.5 0 0 0 
684 3 49 15.57 -22.7 14.5 0 0 0 
685 3 49 15.55 -22.68 10.5 0 0 0 
686 3 49 15.57 -22.7 6.5 0 0 0 
687 1 50 12.85 -19.125 26.5 0 0 -1.041 
688 3 50 12.75 -19.025 22.5 0 0 0 
689 3 50 12.85 -19.125 18.5 0 0 0 
690 3 50 12.75 -19.025 14.5 0 0 0 
691 3 50 12.85 -19.125 10.5 0 0 0 
692 3 50 12.75 -19.025 6.5 0 0 0 
693 3 50 12.85 -19.125 2.5 0 0 0 
694 3 50 12.75 -19.025 -1.5 0 0 0 
695 2 50 15.55 -16.305 26.5 0 0 -0.416 
696 3 50 15.57 -16.325 22.5 0 0 0 
697 3 50 15.55 -16.305 18.5 0 0 0 
698 3 50 15.57 -16.325 14.5 0 0 0 
699 3 50 15.55 -16.305 10.5 0 0 0 
700 3 50 15.57 -16.325 6.5 0 0 0 
701 1 51 12.85 -12.75 26.5 0 0 -1.041 
702 3 51 12.75 -12.65 22.5 0 0 0 
703 3 51 12.85 -12.75 18.5 0 0 0 
704 3 51 12.75 -12.65 14.5 0 0 0 
705 3 51 12.85 -12.75 10.5 0 0 0 
706 3 51 12.75 -12.65 6.5 0 0 0 
707 3 51 12.85 -12.75 2.5 0 0 0 
708 3 51 12.75 -12.65 -1.5 0 0 0 
709 2 51 15.55 -9.93 26.5 0 0 -0.416 
710 3 51 15.57 -9.95 22.5 0 0 0 
711 3 51 15.55 -9.93 18.5 0 0 0 
712 3 51 15.57 -9.95 14.5 0 0 0 
713 3 51 15.55 -9.93 10.5 0 0 0 
714 3 51 15.57 -9.95 6.5 0 0 0 
715 1 52 12.85 -6.375 26.5 0 0 -1.041 
716 3 52 12.75 -6.275 22.5 0 0 0 
717 3 52 12.85 -6.375 18.5 0 0 0 
718 3 52 12.75 -6.275 14.5 0 0 0 
719 3 52 12.85 -6.375 10.5 0 0 0 
720 3 52 12.75 -6.275 6.5 0 0 0 
721 3 52 12.85 -6.375 2.5 0 0 0 
722 3 52 12.75 -6.275 -1.5 0 0 0 
723 2 52 15.55 -3.555 26.5 0 0 -0.416 
724 3 52 15.57 -3.575 22.5 0 0 0 
725 3 52 15.55 -3.555 18.5 0 0 0 
726 3 52 15.57 -3.575 14.5 0 0 0 
727 3 52 15.55 -3.555 10.5 0 0 0 
728 3 52 15.57 -3.575 6.5 0 0 0 
729 1 53 12.85 0 26.5 0 0 -1.041 
730 3 53 12.75 0.1 22.5 0 0 0 
731 3 53 12.85 0 18.5 0 0 0 
732 3 53 12.75 0.1 14.5 0 0 0 
733 3 53 12.85 0 10.5 0 0 0 
734 3 53 12.75 0.1 6.5 0 0 0 
735 3 53 12.85 0 2.5 0 0 0 
736 3 53 12.75 0.1 -1.5 0 0 0 
737 2 53 15.55 2.82 26.5 0 0 -0.416 
738 3 53 15.57 2.8 22.5 0 0 0 
739 3 53 15.55 2.82 18.5 0 0 0 
740 3 53 15.57 2.8 14.5 0 0 0 
741 3 53 15.55 2.82 10.5 0 0 0 
742 3 53 15.57 2.8 6.5 0 0 0 
743 1 54 12.85 6.375 26.5 0 0 -1.041 
744 3 54 12.75 6.475 22.5 0 0 0 
745 3 54 12.85 6.375 18.5 0 0 0 
746 3 54 12.75 6.475 14.5 0 0 0 
747 3 54 12.85 6.375 10.5 0 0 0 
748 3 54 12.75 6.475 6.5 0 0 0 
749 3 54 12.85 6.375 2.5 0 0 0 
750 3 54 12.75 6.475 -1.5 0 0 0 
751 2 54 15.55 9.195 26.5 0 0 -0.416 
752 3 54 15.57 9.175 22.5 0 0 0 
753 3 54 15.55 9.195 18.5 0 0 0 
754 3 54 15.57 9.175 14.5 0 0 0 
755 3 54 15.55 9.195 10.5 0 0 0 
756 3 54 15.57 9.175 6.5 0 0 0 
757 1 55 12.85 12.75 26.5 0 0 -1.041 
758 3 55 12.75 12.85 22.5 0 0 0 
759 3 55 12.85 12.75 18.5 0 0 0 
760 3 55 12.75 12.85 14.5 0 0 0 
761 3 55 12.85 12.75 10.5 0 0 0 
762 3 55 12.75 12.85 6.5 0 0 0 
763 3 55 12.85 12.75 2.5 0 0 0 
764 3 55 12.75 12.85 -1.5 0 0 0 
765 2 55 15.55 15.57 26.5 0 0 -0.416 
766 3 55 15.57 15.55 22.5 0 0 0 
767 3 55 15.55 15.57 18.5 0 0 0 
768 3 55 15.57 15.55 14.5 0 0 0 
769 3 55 15.55 15.57 10.5 0 0 0 
770 3 55 15.57 15.55 6.5 0 0 0 
771 1 56 12.85 19.125 26.5 0 0 -1.041 
772 3 56 12.75 19.225 22.5 0 0 0 
773 3 56 12.85 19.125 18.5 0 0 0 
774 3 56 12.75 19.225 14.5 0 0 0 
775 3 56 12.85 19.125 10.5 0 0 0 
776 3 56 12.75 19.225 6.5 0 0 0 
777 3 56 12.85 19.125 2.5 0 0 0 
778 3 56 12.75 19.225 -1.5 0 0 0 
779 2 56 15.55 21.945 26.5 0 0 -0.416 
780 3 56 15.57 21.925 22.5 0 0 0 
781 3 56 15.55 21.945 18.5 0 0 0 
782 3 56 15.57 21.925 14.5 0 0 0 
783 3 56 15.55 21.945 10.5 0 0 0 
784 3 56 15.57 21.925 6.5 0 0 0 
785 1 57 19.225 -25.5 26.5 0 0 -1.041 
786 3 57 19.125 -25.4 22.5 0 0 0 
787 3 57 19.225 -25.5 18.5 0 0 0 
788 3 57 19.125 -25.4 14.5 0 0 0 
789 3 57 19.225 -25.5 10.5 0 0 0 
790 3 57 19.125 -25.4 6.5 0 0 0 
791 3 57 19.225 -25.5 2.5 0 0 0 
792 3 57 19.125 -25.4 -1.5 0 0 0 
793 2 57 21.925 -22.68 26.5 0 0 -0.416 
794 3 57 21.945 -22.7 22.5 0 0 0 
795 3 57 21.925 -22.68 18.5 0 0 0 
796 3 57 21.945 -22.7 14.5 0 0 0 
797 3 57 21.925 -22.68 10.5 0 0 0 
798 3 57 21.945 -22.7 6.5 0 0 0 
799 1 58 19.225 -19.125 26.5 0 0 -1.041 
800 3 58 19.125 -19.025 22.5 0 0 0 
801 3 58 19.225 -19.125 18.5 0 0 0 
802 3 58 19.125 -19.025 14.5 0 0 0 
803 3 58 19.225 -19.125 10.5 0 0 0 
804 3 58 19.125 -19.025 6.5 0 0 0 
805 3 58 19.225 -19.125 2.5 0 0 0 
806 3 58 19.125 -19.025 -1.5 0 0 0 
807 2 58 21.925 -16.305 26.5 0 0 -0.416 
808 3 58 21.945 -16.325 22.5 0 0 0 
809 3 58 21.925 -16.305 18.5 0 0 0 
810 3 58 21.945 -16.325 14.5 0 0 0 
811 3 58 21.925 -16.305 10.5 0 0 0 
812 3 58 21.945 -16.325 6.5 0 0 0 
813 1 59 19.225 -12.75 26.5 0 0 -1.041 
814 3 59 19.125 -12.65 22.5 0 0 0 
815 3 59 19.225 -12.75 18.5 0 0 0 
816 3 59 19.125 -12.65 14.5 0 0 0 
817 3 59 19.225 -12.75 10.5 0 0 0 
818 3 59 19.125 -12.65 6.5 0 0 0 
819 3 59 19.225 -12.75 2.5 0 0 0 
820 3 59 19.125 -12.65 -1.5 0 0 0 
821 2 59 21.925 -9.93 26.5 0 0 -0.416 
822 3 59 21.945 -9.95 22.5 0 0 0 
823 3 59 21.925 -9.93 18.5 0 0 0 
824 3 59 21.945 -9.95 14.5 0 0 0 
825 3 59 21.925 -9.93 10.5 0 0 0 
826 3 59 21.945 -9.95 6.5 0 0 0 
827 1 60 19.225 -6.375 26.5 0 0 -1.041 
828 3 60 19.125 -6.275 22.5 0 0 0 
829 3 60 19.225 -6.375 18.5 0 0 0 
830 3 60 19.125 -6.275 14.5 0 0 0 
831 3 60 19.225 -6.375 10.5 0 0 0 
832 3 60 19.125 -6.275 6.5 0 0 0 
833 3 60 19.225 -6.375 2.5 0 0 0 
834 3 60 19.125 -6.275 -1.5 0 0 0 
835 2 60 21.925 -3.555 26.5 0 0 -0.416 
836 3 60 21.945 -3.575 22.5 0 0 0 
837 3 60 21.925 -3.555 18.5 0 0 0 
838 3 60 21.945 -3.575 14.5 0 0 0 
839 3 60 21.925 -3.555 10.5 0 0 0 
840 3 60 21.945 -3.575 6.5 0 0 0 
841 1 61 19.225 0 26.5 0 0 -1.041 
842 3 61 19.125 0.1 22.5 0 0 0 
843 3 61 19.225 0 18.5 0 0 0 
844 3 61 19.125 0.1 14.5 0 0 0 
845 3 61 19.225 0 10.5 0 0 0 
846 3 61 19.125 0.1 6.5 0 0 0 
847 3 61 19.225 0 2.5 0 0 0 
848 3 61 19.125 0.1 -1.5 0 0 0 
849 2 61 21.925 2.82 26.5 0 0 -0.416 
850 3 61 21.945 2.8 22.5 0 0 0 
851 3 61 21.925 2.82 18.5 0 0 0 
852 3 61 21.945 2.8 14.5 0 0 0 
853 3 61 21.925 2.82 10.5 0 0 0 
854 3 61 21.945 2.8 6.5 0 0 0 
855 1 62 19.225 6.375 26.5 0 0 -1.041 
856 3 62 19.125 6.475 22.5 0 0 0 
857 3 62 19.225 6.375 18.5 0 0 0 
858 3 62 19.125 6.475 14.5 0 0 0 
859 3 62 19.225 6.375 10.5 0 0 0 
860 3 62 19.125 6.475 6.5 0 0 0 
861 3 62 19.225 6.375 2.5 0 0 0 
862 3 62 19.125 6.475 -1.5 0 0 0 
863 2 62 21.925 9.195 26.5 0 0 -0.416 
864 3 62 21.945 9.175 22.5 0 0 0 
865 3 62 21.925 9.195 18.5 0 0 0 
866 3 62 21.945 9.175 14.5 0 0 0 
867 3 62 21.925 9.195 10.5 0 0 0 
868 3 62 21.945 9.175 6.5 0 0 0 
869 1 63 19.225 12.75 26.5 0 0 -1.041 
870 3 63 19.125 12.85 22.5 0 0 0 
871 3 63 19.225 12.75 18.5 0 0 0 
872 3 63 19.125 12.85 14.5 0 0 0 
873 3 63 19.225 12.75 10.5 0 0 0 
874 3 63 19.125 12.85 6.5 0 0 0 
875 3 63 19.225 12.75 2.5 0 0 0 
876 3 63 19.125 12.85 -1.5 0 0 0 
877 2 63 21.925 15.57 26.5 0 0 -0.416 
878 3 63 21.945 15.55 22.5 0 0 0 
879 3 63 21.925 15.57 18.5 0 0 0 
880 3 63 21.945 15.55 14.5 0 0 0 
881 3 63 21.925 15.57 10.5 0 0 0 
882 3 63 21.945 15.55 6.5 0 0 0 